 variables=x,y1,y2,y3,y4,y5,y6,y7,y8,y9,y10,y11,y12,y13,y14,y15
 zone t="           1 "i=         263 f=point
  0.2447917E+00 -0.8082360E-04 -0.8107670E-04 -0.8127921E-04 -0.8176175E-04 -0.8220178E-04 -0.8265360E-04 -0.8306409E-04 -0.8334964E-04 -0.8289786E-04 -0.8254416E-04 -0.8259234E-04 -0.8309163E-04 -0.8587373E-04 -0.8592360E-04 -0.4738839E-04
  0.2500000E+00 -0.1641785E-03 -0.1647462E-03 -0.1651035E-03 -0.1658152E-03 -0.1664788E-03 -0.1669887E-03 -0.1675323E-03 -0.1677041E-03 -0.1660835E-03 -0.1640786E-03 -0.1626443E-03 -0.1616307E-03 -0.1644691E-03 -0.1599760E-03 -0.1021333E-03
  0.2552083E+00 -0.2813263E-03 -0.2807158E-03 -0.2810384E-03 -0.2816383E-03 -0.2821573E-03 -0.2825063E-03 -0.2828015E-03 -0.2826982E-03 -0.2810514E-03 -0.2790261E-03 -0.2769644E-03 -0.2744863E-03 -0.2752487E-03 -0.2670177E-03 -0.2082915E-03
  0.2604167E+00 -0.4188238E-03 -0.4183563E-03 -0.4188885E-03 -0.4195496E-03 -0.4198981E-03 -0.4196009E-03 -0.4189678E-03 -0.4173137E-03 -0.4125123E-03 -0.4062078E-03 -0.3998193E-03 -0.3935379E-03 -0.3942980E-03 -0.3793983E-03 -0.2928285E-03
  0.2656250E+00 -0.5586670E-03 -0.5599850E-03 -0.5606002E-03 -0.5609358E-03 -0.5608298E-03 -0.5594862E-03 -0.5574596E-03 -0.5542378E-03 -0.5461840E-03 -0.5361594E-03 -0.5275535E-03 -0.5206251E-03 -0.5252988E-03 -0.5075572E-03 -0.4001281E-03
  0.2708333E+00 -0.7335237E-03 -0.7335639E-03 -0.7346229E-03 -0.7350931E-03 -0.7350186E-03 -0.7335699E-03 -0.7311209E-03 -0.7272581E-03 -0.7180491E-03 -0.7056518E-03 -0.6941185E-03 -0.6847147E-03 -0.6886180E-03 -0.6640746E-03 -0.5334547E-03
  0.2760417E+00 -0.9410450E-03 -0.9383992E-03 -0.9398768E-03 -0.9407272E-03 -0.9409327E-03 -0.9397580E-03 -0.9374303E-03 -0.9334537E-03 -0.9239630E-03 -0.9100413E-03 -0.8950707E-03 -0.8813328E-03 -0.8825744E-03 -0.8501673E-03 -0.6952536E-03
  0.2812500E+00 -0.1145833E-02 -0.1139514E-02 -0.1141356E-02 -0.1142596E-02 -0.1143145E-02 -0.1142300E-02 -0.1140161E-02 -0.1135993E-02 -0.1126039E-02 -0.1110507E-02 -0.1092055E-02 -0.1072968E-02 -0.1069377E-02 -0.1027141E-02 -0.8483160E-03
  0.2864583E+00 -0.1313440E-02 -0.1304019E-02 -0.1306217E-02 -0.1307970E-02 -0.1309091E-02 -0.1308975E-02 -0.1307738E-02 -0.1304577E-02 -0.1295984E-02 -0.1281616E-02 -0.1263225E-02 -0.1243287E-02 -0.1240638E-02 -0.1195511E-02 -0.9994022E-03
  0.2916667E+00 -0.1414569E-02 -0.1402994E-02 -0.1405460E-02 -0.1407649E-02 -0.1409329E-02 -0.1409935E-02 -0.1409696E-02 -0.1407815E-02 -0.1401122E-02 -0.1389178E-02 -0.1373660E-02 -0.1357880E-02 -0.1362454E-02 -0.1322894E-02 -0.1122882E-02
  0.2968750E+00 -0.1479032E-02 -0.1466071E-02 -0.1468531E-02 -0.1470886E-02 -0.1472858E-02 -0.1473940E-02 -0.1474481E-02 -0.1473803E-02 -0.1468866E-02 -0.1459620E-02 -0.1447920E-02 -0.1437104E-02 -0.1448068E-02 -0.1415905E-02 -0.1226155E-02
  0.3020833E+00 -0.1534454E-02 -0.1519827E-02 -0.1522148E-02 -0.1524505E-02 -0.1526641E-02 -0.1528020E-02 -0.1529076E-02 -0.1529182E-02 -0.1525574E-02 -0.1518657E-02 -0.1509604E-02 -0.1501807E-02 -0.1516014E-02 -0.1489946E-02 -0.1312629E-02
  0.3072917E+00 -0.1572249E-02 -0.1556470E-02 -0.1558726E-02 -0.1561134E-02 -0.1563509E-02 -0.1565317E-02 -0.1567083E-02 -0.1568338E-02 -0.1566625E-02 -0.1562680E-02 -0.1557831E-02 -0.1554802E-02 -0.1574907E-02 -0.1558646E-02 -0.1399000E-02
  0.3125000E+00 -0.1606955E-02 -0.1590253E-02 -0.1592478E-02 -0.1595016E-02 -0.1597750E-02 -0.1600200E-02 -0.1603047E-02 -0.1606059E-02 -0.1607211E-02 -0.1607728E-02 -0.1609184E-02 -0.1614716E-02 -0.1645498E-02 -0.1643609E-02 -0.1500592E-02
  0.3177083E+00 -0.1659040E-02 -0.1640676E-02 -0.1642982E-02 -0.1645712E-02 -0.1648836E-02 -0.1651947E-02 -0.1655805E-02 -0.1660326E-02 -0.1663713E-02 -0.1667538E-02 -0.1673362E-02 -0.1684205E-02 -0.1720635E-02 -0.1724239E-02 -0.1588739E-02
  0.3229167E+00 -0.1728370E-02 -0.1707433E-02 -0.1709759E-02 -0.1712589E-02 -0.1715950E-02 -0.1719427E-02 -0.1723808E-02 -0.1729153E-02 -0.1733808E-02 -0.1739298E-02 -0.1746986E-02 -0.1760130E-02 -0.1799073E-02 -0.1804390E-02 -0.1669353E-02
  0.3281250E+00 -0.1810325E-02 -0.1786319E-02 -0.1788688E-02 -0.1791656E-02 -0.1795332E-02 -0.1799268E-02 -0.1804290E-02 -0.1810450E-02 -0.1816146E-02 -0.1822951E-02 -0.1832535E-02 -0.1847418E-02 -0.1888438E-02 -0.1894560E-02 -0.1757380E-02
  0.3333333E+00 -0.1880430E-02 -0.1853644E-02 -0.1856027E-02 -0.1859036E-02 -0.1862898E-02 -0.1867147E-02 -0.1872647E-02 -0.1879482E-02 -0.1886077E-02 -0.1894416E-02 -0.1906191E-02 -0.1923596E-02 -0.1966986E-02 -0.1975777E-02 -0.1838478E-02
  0.3385417E+00 -0.1951415E-02 -0.1922483E-02 -0.1924880E-02 -0.1927895E-02 -0.1931913E-02 -0.1936477E-02 -0.1942477E-02 -0.1950109E-02 -0.1957945E-02 -0.1967896E-02 -0.1982036E-02 -0.2001977E-02 -0.2046454E-02 -0.2055602E-02 -0.1915940E-02
  0.3437500E+00 -0.2013220E-02 -0.1982246E-02 -0.1984666E-02 -0.1987697E-02 -0.1991829E-02 -0.1996600E-02 -0.2002931E-02 -0.2011115E-02 -0.2019714E-02 -0.2030938E-02 -0.2047182E-02 -0.2069833E-02 -0.2117306E-02 -0.2126843E-02 -0.1982659E-02
  0.3489583E+00 -0.2053171E-02 -0.2020106E-02 -0.2022543E-02 -0.2025606E-02 -0.2029930E-02 -0.2035031E-02 -0.2041898E-02 -0.2050880E-02 -0.2060566E-02 -0.2073346E-02 -0.2091799E-02 -0.2116554E-02 -0.2165935E-02 -0.2177908E-02 -0.2034032E-02
  0.3541667E+00 -0.2063584E-02 -0.2028685E-02 -0.2031109E-02 -0.2034192E-02 -0.2038672E-02 -0.2044107E-02 -0.2051578E-02 -0.2061629E-02 -0.2072952E-02 -0.2088279E-02 -0.2110376E-02 -0.2139660E-02 -0.2193537E-02 -0.2210739E-02 -0.2070077E-02
  0.3593750E+00 -0.2062267E-02 -0.2025519E-02 -0.2027929E-02 -0.2031042E-02 -0.2035693E-02 -0.2041452E-02 -0.2049492E-02 -0.2060492E-02 -0.2073391E-02 -0.2091117E-02 -0.2116557E-02 -0.2149803E-02 -0.2208021E-02 -0.2229463E-02 -0.2093116E-02
  0.3645833E+00 -0.2066963E-02 -0.2028528E-02 -0.2030930E-02 -0.2034084E-02 -0.2038874E-02 -0.2044928E-02 -0.2053452E-02 -0.2065202E-02 -0.2079174E-02 -0.2098682E-02 -0.2126941E-02 -0.2164072E-02 -0.2226719E-02 -0.2253516E-02 -0.2119616E-02
  0.3697917E+00 -0.2075963E-02 -0.2036335E-02 -0.2038694E-02 -0.2041817E-02 -0.2046590E-02 -0.2052696E-02 -0.2061333E-02 -0.2073380E-02 -0.2087917E-02 -0.2108305E-02 -0.2138089E-02 -0.2177186E-02 -0.2241871E-02 -0.2271204E-02 -0.2142317E-02
  0.3750000E+00 -0.2090922E-02 -0.2050579E-02 -0.2052900E-02 -0.2055986E-02 -0.2060723E-02 -0.2066813E-02 -0.2075458E-02 -0.2087507E-02 -0.2102090E-02 -0.2122630E-02 -0.2152618E-02 -0.2191916E-02 -0.2256348E-02 -0.2286177E-02 -0.2158554E-02
  0.3802083E+00 -0.2099112E-02 -0.2057478E-02 -0.2059775E-02 -0.2062821E-02 -0.2067536E-02 -0.2073634E-02 -0.2082346E-02 -0.2094587E-02 -0.2109398E-02 -0.2130254E-02 -0.2160704E-02 -0.2200850E-02 -0.2265478E-02 -0.2295943E-02 -0.2169018E-02
  0.3854167E+00 -0.2115538E-02 -0.2072227E-02 -0.2074492E-02 -0.2077479E-02 -0.2082136E-02 -0.2088158E-02 -0.2096728E-02 -0.2108674E-02 -0.2122829E-02 -0.2142623E-02 -0.2171503E-02 -0.2209770E-02 -0.2272059E-02 -0.2299063E-02 -0.2167921E-02
  0.3906250E+00 -0.2128197E-02 -0.2082449E-02 -0.2084648E-02 -0.2087522E-02 -0.2092067E-02 -0.2097956E-02 -0.2106309E-02 -0.2117881E-02 -0.2131443E-02 -0.2150507E-02 -0.2178738E-02 -0.2215836E-02 -0.2276112E-02 -0.2300571E-02 -0.2164481E-02
  0.3958333E+00 -0.2146716E-02 -0.2098784E-02 -0.2100871E-02 -0.2103562E-02 -0.2107887E-02 -0.2113462E-02 -0.2121302E-02 -0.2132072E-02 -0.2144218E-02 -0.2160933E-02 -0.2185943E-02 -0.2219584E-02 -0.2275203E-02 -0.2296123E-02 -0.2157008E-02
  0.4010417E+00 -0.2165643E-02 -0.2115788E-02 -0.2117763E-02 -0.2120277E-02 -0.2124401E-02 -0.2129717E-02 -0.2137149E-02 -0.2147306E-02 -0.2158455E-02 -0.2173680E-02 -0.2196489E-02 -0.2226826E-02 -0.2277030E-02 -0.2291391E-02 -0.2148320E-02
  0.4062500E+00 -0.2173795E-02 -0.2122503E-02 -0.2124367E-02 -0.2126703E-02 -0.2130613E-02 -0.2135650E-02 -0.2142682E-02 -0.2152245E-02 -0.2162456E-02 -0.2176222E-02 -0.2197253E-02 -0.2224744E-02 -0.2269976E-02 -0.2280112E-02 -0.2134674E-02
  0.4114583E+00 -0.2168043E-02 -0.2116139E-02 -0.2117905E-02 -0.2120099E-02 -0.2123861E-02 -0.2128728E-02 -0.2135547E-02 -0.2144831E-02 -0.2154480E-02 -0.2167180E-02 -0.2186519E-02 -0.2211974E-02 -0.2253727E-02 -0.2259736E-02 -0.2113278E-02
  0.4166667E+00 -0.2146532E-02 -0.2094814E-02 -0.2096481E-02 -0.2098523E-02 -0.2102118E-02 -0.2106795E-02 -0.2113417E-02 -0.2122493E-02 -0.2131927E-02 -0.2144588E-02 -0.2164056E-02 -0.2189629E-02 -0.2230249E-02 -0.2237138E-02 -0.2094848E-02
  0.4218750E+00 -0.2119480E-02 -0.2068645E-02 -0.2070251E-02 -0.2072193E-02 -0.2075690E-02 -0.2080286E-02 -0.2086879E-02 -0.2096024E-02 -0.2105563E-02 -0.2118229E-02 -0.2137729E-02 -0.2163603E-02 -0.2204606E-02 -0.2212889E-02 -0.2075005E-02
  0.4270833E+00 -0.2092997E-02 -0.2042805E-02 -0.2044364E-02 -0.2046210E-02 -0.2049610E-02 -0.2054105E-02 -0.2060624E-02 -0.2069863E-02 -0.2079780E-02 -0.2093250E-02 -0.2113883E-02 -0.2141798E-02 -0.2184441E-02 -0.2194734E-02 -0.2060937E-02
  0.4322917E+00 -0.2070935E-02 -0.2020683E-02 -0.2022197E-02 -0.2023937E-02 -0.2027215E-02 -0.2031568E-02 -0.2037943E-02 -0.2047058E-02 -0.2056810E-02 -0.2070108E-02 -0.2090450E-02 -0.2117693E-02 -0.2159899E-02 -0.2171354E-02 -0.2039703E-02
  0.4375000E+00 -0.2049519E-02 -0.1998320E-02 -0.1999796E-02 -0.2001441E-02 -0.2004613E-02 -0.2008810E-02 -0.2014958E-02 -0.2023794E-02 -0.2033209E-02 -0.2045980E-02 -0.2065916E-02 -0.2092237E-02 -0.2132204E-02 -0.2141760E-02 -0.2008534E-02
  0.4427083E+00 -0.2022628E-02 -0.1970518E-02 -0.1971944E-02 -0.1973488E-02 -0.1976527E-02 -0.1980539E-02 -0.1986409E-02 -0.1994855E-02 -0.2003747E-02 -0.2015533E-02 -0.2033625E-02 -0.2057920E-02 -0.2094158E-02 -0.2098977E-02 -0.1963173E-02
  0.4479167E+00 -0.1987611E-02 -0.1934608E-02 -0.1935955E-02 -0.1937361E-02 -0.1940218E-02 -0.1943950E-02 -0.1949420E-02 -0.1957348E-02 -0.1965540E-02 -0.1976529E-02 -0.1993787E-02 -0.2016113E-02 -0.2048829E-02 -0.2048594E-02 -0.1909528E-02
  0.4531250E+00 -0.1955669E-02 -0.1901868E-02 -0.1903156E-02 -0.1904466E-02 -0.1907199E-02 -0.1910754E-02 -0.1915956E-02 -0.1923482E-02 -0.1931074E-02 -0.1940996E-02 -0.1956882E-02 -0.1978075E-02 -0.2008051E-02 -0.2003940E-02 -0.1861164E-02
  0.4583333E+00 -0.1935684E-02 -0.1881294E-02 -0.1882523E-02 -0.1883735E-02 -0.1886324E-02 -0.1889645E-02 -0.1894465E-02 -0.1901364E-02 -0.1907890E-02 -0.1916114E-02 -0.1929368E-02 -0.1946299E-02 -0.1971458E-02 -0.1964116E-02 -0.1821365E-02
  0.4635417E+00 -0.1925905E-02 -0.1870821E-02 -0.1871977E-02 -0.1873065E-02 -0.1875457E-02 -0.1878470E-02 -0.1882812E-02 -0.1888998E-02 -0.1894391E-02 -0.1900967E-02 -0.1911725E-02 -0.1925678E-02 -0.1946443E-02 -0.1933079E-02 -0.1786531E-02
  0.4687500E+00 -0.1922844E-02 -0.1867323E-02 -0.1868417E-02 -0.1869396E-02 -0.1871596E-02 -0.1874257E-02 -0.1877998E-02 -0.1883181E-02 -0.1887093E-02 -0.1891372E-02 -0.1898725E-02 -0.1908073E-02 -0.1923154E-02 -0.1903826E-02 -0.1754304E-02
  0.4739583E+00 -0.1911714E-02 -0.1855742E-02 -0.1856774E-02 -0.1857648E-02 -0.1859672E-02 -0.1862033E-02 -0.1865294E-02 -0.1869765E-02 -0.1872432E-02 -0.1874674E-02 -0.1878908E-02 -0.1884830E-02 -0.1895211E-02 -0.1871515E-02 -0.1718059E-02
  0.4791667E+00 -0.1894869E-02 -0.1838932E-02 -0.1839927E-02 -0.1840742E-02 -0.1842663E-02 -0.1844831E-02 -0.1847737E-02 -0.1851556E-02 -0.1853263E-02 -0.1854076E-02 -0.1855988E-02 -0.1858334E-02 -0.1865109E-02 -0.1838039E-02 -0.1683873E-02
  0.4843750E+00 -0.1868592E-02 -0.1812973E-02 -0.1813949E-02 -0.1814743E-02 -0.1816621E-02 -0.1818704E-02 -0.1821473E-02 -0.1825077E-02 -0.1826371E-02 -0.1826311E-02 -0.1827312E-02 -0.1828416E-02 -0.1834502E-02 -0.1808306E-02 -0.1656080E-02
  0.4895833E+00 -0.1849439E-02 -0.1794090E-02 -0.1795058E-02 -0.1795846E-02 -0.1797705E-02 -0.1799751E-02 -0.1802491E-02 -0.1806051E-02 -0.1807312E-02 -0.1807335E-02 -0.1807734E-02 -0.1807743E-02 -0.1812339E-02 -0.1783965E-02 -0.1630440E-02
  0.4947917E+00 -0.1835881E-02 -0.1780822E-02 -0.1781808E-02 -0.1782636E-02 -0.1784562E-02 -0.1786702E-02 -0.1789567E-02 -0.1793284E-02 -0.1794703E-02 -0.1794607E-02 -0.1794929E-02 -0.1794690E-02 -0.1797838E-02 -0.1768111E-02 -0.1612227E-02
  0.5000000E+00 -0.1827780E-02 -0.1772726E-02 -0.1773724E-02 -0.1774582E-02 -0.1776564E-02 -0.1778802E-02 -0.1781829E-02 -0.1785809E-02 -0.1787576E-02 -0.1787789E-02 -0.1787820E-02 -0.1787126E-02 -0.1787986E-02 -0.1753633E-02 -0.1591848E-02
  0.5052083E+00 -0.1808986E-02 -0.1753803E-02 -0.1754794E-02 -0.1755665E-02 -0.1757691E-02 -0.1760026E-02 -0.1763217E-02 -0.1767442E-02 -0.1769774E-02 -0.1770521E-02 -0.1770751E-02 -0.1769188E-02 -0.1767449E-02 -0.1729103E-02 -0.1563680E-02
  0.5104167E+00 -0.1778975E-02 -0.1723744E-02 -0.1724692E-02 -0.1725523E-02 -0.1727522E-02 -0.1729872E-02 -0.1733175E-02 -0.1737732E-02 -0.1740499E-02 -0.1741805E-02 -0.1743080E-02 -0.1742470E-02 -0.1739483E-02 -0.1697791E-02 -0.1530191E-02
  0.5156250E+00 -0.1735917E-02 -0.1681105E-02 -0.1681978E-02 -0.1682730E-02 -0.1684652E-02 -0.1686950E-02 -0.1690263E-02 -0.1694934E-02 -0.1698062E-02 -0.1700080E-02 -0.1701503E-02 -0.1700962E-02 -0.1695445E-02 -0.1649959E-02 -0.1482463E-02
  0.5208333E+00 -0.1681138E-02 -0.1626837E-02 -0.1627594E-02 -0.1628206E-02 -0.1629961E-02 -0.1632086E-02 -0.1635232E-02 -0.1639736E-02 -0.1642695E-02 -0.1644561E-02 -0.1646462E-02 -0.1645898E-02 -0.1637977E-02 -0.1589176E-02 -0.1424219E-02
  0.5260417E+00 -0.1610304E-02 -0.1557148E-02 -0.1557755E-02 -0.1558183E-02 -0.1559710E-02 -0.1561555E-02 -0.1564349E-02 -0.1568413E-02 -0.1570785E-02 -0.1571777E-02 -0.1572534E-02 -0.1570971E-02 -0.1559708E-02 -0.1506706E-02 -0.1345503E-02
  0.5312500E+00 -0.1521142E-02 -0.1469590E-02 -0.1470032E-02 -0.1470253E-02 -0.1471510E-02 -0.1472985E-02 -0.1475307E-02 -0.1478827E-02 -0.1480523E-02 -0.1480711E-02 -0.1480279E-02 -0.1476604E-02 -0.1461478E-02 -0.1405830E-02 -0.1252561E-02
  0.5364583E+00 -0.1416484E-02 -0.1366973E-02 -0.1367244E-02 -0.1367246E-02 -0.1368204E-02 -0.1369291E-02 -0.1371109E-02 -0.1373940E-02 -0.1374642E-02 -0.1373400E-02 -0.1371420E-02 -0.1366122E-02 -0.1347555E-02 -0.1290906E-02 -0.1147818E-02
  0.5416667E+00 -0.1301588E-02 -0.1254378E-02 -0.1254481E-02 -0.1254266E-02 -0.1254922E-02 -0.1255587E-02 -0.1256843E-02 -0.1259060E-02 -0.1259140E-02 -0.1257204E-02 -0.1254192E-02 -0.1247542E-02 -0.1226631E-02 -0.1170994E-02 -0.1040798E-02
  0.5468750E+00 -0.1185761E-02 -0.1141217E-02 -0.1141181E-02 -0.1140786E-02 -0.1141195E-02 -0.1141530E-02 -0.1142348E-02 -0.1143952E-02 -0.1143264E-02 -0.1140515E-02 -0.1136443E-02 -0.1129201E-02 -0.1106465E-02 -0.1051799E-02 -0.9350607E-03
  0.5520833E+00 -0.1065888E-02 -0.1024307E-02 -0.1024154E-02 -0.1023615E-02 -0.1023821E-02 -0.1023904E-02 -0.1024428E-02 -0.1025768E-02 -0.1024821E-02 -0.1021924E-02 -0.1017693E-02 -0.1010087E-02 -0.9864888E-03 -0.9347226E-03 -0.8323169E-03
  0.5572917E+00 -0.9427145E-03 -0.9041144E-03 -0.9038395E-03 -0.9031496E-03 -0.9031357E-03 -0.9029173E-03 -0.9030682E-03 -0.9039360E-03 -0.9023483E-03 -0.8986989E-03 -0.8939162E-03 -0.8858396E-03 -0.8617166E-03 -0.8136863E-03 -0.7273200E-03
  0.5625000E+00 -0.8217993E-03 -0.7861801E-03 -0.7857964E-03 -0.7849646E-03 -0.7847254E-03 -0.7841996E-03 -0.7839554E-03 -0.7843177E-03 -0.7821770E-03 -0.7778136E-03 -0.7724000E-03 -0.7645221E-03 -0.7398782E-03 -0.6938024E-03 -0.6221614E-03
  0.5677083E+00 -0.7055597E-03 -0.6725418E-03 -0.6720578E-03 -0.6711024E-03 -0.6706621E-03 -0.6698535E-03 -0.6692184E-03 -0.6691232E-03 -0.6664631E-03 -0.6615907E-03 -0.6550287E-03 -0.6455672E-03 -0.6198982E-03 -0.5770658E-03 -0.5207006E-03
  0.5729167E+00 -0.6002803E-03 -0.5695868E-03 -0.5690149E-03 -0.5679449E-03 -0.5673122E-03 -0.5662139E-03 -0.5651661E-03 -0.5644068E-03 -0.5608293E-03 -0.5547120E-03 -0.5465448E-03 -0.5359978E-03 -0.5094568E-03 -0.4693065E-03 -0.4260874E-03
  0.5781250E+00 -0.5062365E-03 -0.4774540E-03 -0.4768169E-03 -0.4756661E-03 -0.4748903E-03 -0.4735834E-03 -0.4722380E-03 -0.4710711E-03 -0.4668747E-03 -0.4595653E-03 -0.4497810E-03 -0.4372147E-03 -0.4080059E-03 -0.3683889E-03 -0.3363277E-03
  0.5833333E+00 -0.4214242E-03 -0.3939943E-03 -0.3932981E-03 -0.3920693E-03 -0.3911490E-03 -0.3896096E-03 -0.3879615E-03 -0.3863647E-03 -0.3817713E-03 -0.3742368E-03 -0.3636734E-03 -0.3496207E-03 -0.3178854E-03 -0.2787477E-03 -0.2553045E-03
  0.5885417E+00 -0.3398199E-03 -0.3135249E-03 -0.3127849E-03 -0.3115003E-03 -0.3104873E-03 -0.3088166E-03 -0.3069530E-03 -0.3049761E-03 -0.2998252E-03 -0.2915189E-03 -0.2799640E-03 -0.2642487E-03 -0.2316865E-03 -0.1945976E-03 -0.1825994E-03
  0.5937500E+00 -0.2596922E-03 -0.2341774E-03 -0.2334022E-03 -0.2320721E-03 -0.2309655E-03 -0.2291548E-03 -0.2270794E-03 -0.2247686E-03 -0.2191573E-03 -0.2101016E-03 -0.1980059E-03 -0.1817535E-03 -0.1491115E-03 -0.1150298E-03 -0.1139709E-03
  0.5989583E+00 -0.1849490E-03 -0.1599331E-03 -0.1591335E-03 -0.1577770E-03 -0.1566251E-03 -0.1547491E-03 -0.1525931E-03 -0.1501843E-03 -0.1444875E-03 -0.1352447E-03 -0.1224296E-03 -0.1061186E-03 -0.7278779E-04 -0.4316798E-04 -0.5448701E-04
  0.6041667E+00 -0.1192942E-03 -0.9446220E-04 -0.9363104E-04 -0.9223301E-04 -0.9100692E-04 -0.8901226E-04 -0.8664938E-04 -0.8391486E-04 -0.7766782E-04 -0.6751396E-04 -0.5363515E-04 -0.3599737E-04 -0.3075067E-05  0.2274123E-04 -0.1346649E-05
  0.6093750E+00 -0.6539206E-04 -0.4052754E-04 -0.3967263E-04 -0.3824078E-04 -0.3694445E-04 -0.3481007E-04 -0.3220672E-04 -0.2906478E-04 -0.2236815E-04 -0.1167465E-04  0.3190368E-05  0.2146584E-04  0.5430222E-04  0.7563258E-04  0.4135249E-04
  0.6145833E+00 -0.2155093E-04  0.3257663E-05  0.4126443E-05  0.5572427E-05  0.6901881E-05  0.9089272E-05  0.1178758E-04  0.1508553E-04  0.2209921E-04  0.3336585E-04  0.4892893E-04  0.6754803E-04  0.9951653E-04  0.1161685E-03  0.7322035E-04
  0.6197917E+00  0.1824389E-04  0.4316075E-04  0.4403358E-04  0.4547843E-04  0.4681450E-04  0.4902710E-04  0.5174299E-04  0.5513341E-04  0.6226582E-04  0.7356510E-04  0.8865904E-04  0.1059376E-03  0.1352622E-03  0.1479204E-03  0.9693027E-04
  0.6250000E+00  0.5448769E-04  0.7943624E-04  0.8031571E-04  0.8175899E-04  0.8309701E-04  0.8531751E-04  0.8806169E-04  0.9145799E-04  0.9872071E-04  0.1103442E-03  0.1254441E-03  0.1418478E-03  0.1674209E-03  0.1754664E-03  0.1144510E-03
  0.6302083E+00  0.8662526E-04  0.1115721E-03  0.1124573E-03  0.1138990E-03  0.1152536E-03  0.1175417E-03  0.1204222E-03  0.1241159E-03  0.1317004E-03  0.1435511E-03  0.1592964E-03  0.1751893E-03  0.1998931E-03  0.2041574E-03  0.1344066E-03
  0.6354167E+00  0.1160569E-03  0.1409889E-03  0.1418925E-03  0.1433569E-03  0.1447605E-03  0.1471438E-03  0.1501670E-03  0.1540919E-03  0.1619600E-03  0.1743683E-03  0.1910691E-03  0.2085119E-03  0.2330389E-03  0.2347832E-03  0.1561916E-03
  0.6406250E+00  0.1462627E-03  0.1709111E-03  0.1718239E-03  0.1732919E-03  0.1747201E-03  0.1771464E-03  0.1802682E-03  0.1844259E-03  0.1928361E-03  0.2059113E-03  0.2235265E-03  0.2422995E-03  0.2674825E-03  0.2666221E-03  0.1789028E-03
  0.6458333E+00  0.1785611E-03  0.2027051E-03  0.2036165E-03  0.2050707E-03  0.2065010E-03  0.2089786E-03  0.2121791E-03  0.2164915E-03  0.2250653E-03  0.2383169E-03  0.2562572E-03  0.2755301E-03  0.3013707E-03  0.2965946E-03  0.1985509E-03
  0.6510417E+00  0.2129912E-03  0.2364153E-03  0.2372942E-03  0.2386777E-03  0.2400080E-03  0.2423459E-03  0.2453442E-03  0.2494453E-03  0.2577297E-03  0.2706767E-03  0.2884148E-03  0.3072614E-03  0.3304550E-03  0.3193953E-03  0.2094200E-03
  0.6562500E+00  0.2490983E-03  0.2716201E-03  0.2724479E-03  0.2737276E-03  0.2748957E-03  0.2769885E-03  0.2795875E-03  0.2829855E-03  0.2901222E-03  0.3015726E-03  0.3169973E-03  0.3325499E-03  0.3501741E-03  0.3305514E-03  0.2085959E-03
  0.6614583E+00  0.2844246E-03  0.3058393E-03  0.3065786E-03  0.3076934E-03  0.3086165E-03  0.3103388E-03  0.3123514E-03  0.3147341E-03  0.3201490E-03  0.3289999E-03  0.3408919E-03  0.3502391E-03  0.3590093E-03  0.3280925E-03  0.1957588E-03
  0.6666667E+00  0.3162878E-03  0.3363806E-03  0.3370157E-03  0.3379487E-03  0.3386018E-03  0.3399055E-03  0.3412185E-03  0.3425378E-03  0.3459968E-03  0.3511661E-03  0.3566879E-03  0.3575988E-03  0.3556734E-03  0.3146849E-03  0.1770450E-03
  0.6718750E+00  0.3385266E-03  0.3575760E-03  0.3581016E-03  0.3588425E-03  0.3592028E-03  0.3600587E-03  0.3606180E-03  0.3606356E-03  0.3620517E-03  0.3636549E-03  0.3634630E-03  0.3558603E-03  0.3448119E-03  0.2972047E-03  0.1629640E-03
  0.6770833E+00  0.3436829E-03  0.3619114E-03  0.3623101E-03  0.3628383E-03  0.3628783E-03  0.3632462E-03  0.3630651E-03  0.3619975E-03  0.3616985E-03  0.3607131E-03  0.3567227E-03  0.3437541E-03  0.3265137E-03  0.2792456E-03  0.1552263E-03
  0.6822917E+00  0.3341482E-03  0.3516978E-03  0.3519930E-03  0.3523560E-03  0.3521743E-03  0.3522527E-03  0.3516646E-03  0.3498680E-03  0.3484339E-03  0.3456588E-03  0.3391301E-03  0.3234605E-03  0.3045632E-03  0.2622730E-03  0.1573760E-03
  0.6875000E+00  0.3133727E-03  0.3301654E-03  0.3303654E-03  0.3305872E-03  0.3302215E-03  0.3300470E-03  0.3290971E-03  0.3268881E-03  0.3248010E-03  0.3213391E-03  0.3138871E-03  0.2970497E-03  0.2781628E-03  0.2465281E-03  0.1653473E-03
  0.6927083E+00  0.2790223E-03  0.2950539E-03  0.2951641E-03  0.2952550E-03  0.2947351E-03  0.2943769E-03  0.2932024E-03  0.2907430E-03  0.2883959E-03  0.2845966E-03  0.2768988E-03  0.2611321E-03  0.2471649E-03  0.2307223E-03  0.1766070E-03
  0.6979167E+00  0.2381197E-03  0.2529824E-03  0.2530015E-03  0.2529569E-03  0.2522714E-03  0.2517275E-03  0.2503303E-03  0.2475651E-03  0.2450951E-03  0.2417803E-03  0.2355196E-03  0.2226747E-03  0.2159037E-03  0.2162375E-03  0.1897256E-03
  0.7031250E+00  0.1988042E-03  0.2121221E-03  0.2120681E-03  0.2119235E-03  0.2111397E-03  0.2105161E-03  0.2090589E-03  0.2062596E-03  0.2038623E-03  0.2007623E-03  0.1953523E-03  0.1855156E-03  0.1856856E-03  0.2007138E-03  0.1987730E-03
  0.7083333E+00  0.1710361E-03  0.1821965E-03  0.1820514E-03  0.1817679E-03  0.1808131E-03  0.1799868E-03  0.1782860E-03  0.1752096E-03  0.1723747E-03  0.1688838E-03  0.1638336E-03  0.1550574E-03  0.1591590E-03  0.1840557E-03  0.1988244E-03
  0.7135417E+00  0.1657134E-03  0.1742114E-03  0.1739753E-03  0.1735430E-03  0.1723870E-03  0.1712558E-03  0.1690688E-03  0.1652411E-03  0.1614032E-03  0.1566211E-03  0.1498387E-03  0.1402325E-03  0.1427631E-03  0.1696241E-03  0.1933116E-03
  0.7187500E+00  0.1814981E-03  0.1872802E-03  0.1869811E-03  0.1864414E-03  0.1851404E-03  0.1838163E-03  0.1813280E-03  0.1768181E-03  0.1717972E-03  0.1650613E-03  0.1553719E-03  0.1417589E-03  0.1392248E-03  0.1608286E-03  0.1865681E-03
  0.7239583E+00  0.2121768E-03  0.2155763E-03  0.2152443E-03  0.2146404E-03  0.2132497E-03  0.2117930E-03  0.2090737E-03  0.2042439E-03  0.1985796E-03  0.1905558E-03  0.1780682E-03  0.1594581E-03  0.1482924E-03  0.1622489E-03  0.1871737E-03
  0.7291667E+00  0.2438378E-03  0.2451806E-03  0.2448572E-03  0.2442559E-03  0.2428744E-03  0.2414414E-03  0.2387787E-03  0.2339204E-03  0.2279380E-03  0.2196419E-03  0.2057711E-03  0.1841228E-03  0.1669257E-03  0.1760379E-03  0.2012426E-03
  0.7343750E+00  0.2632592E-03  0.2632856E-03  0.2630017E-03  0.2624494E-03  0.2611458E-03  0.2598759E-03  0.2574507E-03  0.2529740E-03  0.2476054E-03  0.2396919E-03  0.2267145E-03  0.2054140E-03  0.1871243E-03  0.1955827E-03  0.2241999E-03
  0.7395833E+00  0.2666432E-03  0.2656639E-03  0.2654264E-03  0.2649381E-03  0.2637356E-03  0.2626330E-03  0.2605808E-03  0.2567228E-03  0.2524301E-03  0.2465880E-03  0.2362031E-03  0.2173485E-03  0.1990164E-03  0.2105750E-03  0.2488645E-03
  0.7447917E+00  0.2542860E-03  0.2527745E-03  0.2525835E-03  0.2521629E-03  0.2510747E-03  0.2501860E-03  0.2484424E-03  0.2451742E-03  0.2417920E-03  0.2369866E-03  0.2287780E-03  0.2121779E-03  0.1970935E-03  0.2154938E-03  0.2693184E-03
  0.7500000E+00  0.2239062E-03  0.2221382E-03  0.2219734E-03  0.2215882E-03  0.2205477E-03  0.2197517E-03  0.2182641E-03  0.2153437E-03  0.2126878E-03  0.2091088E-03  0.2023094E-03  0.1885663E-03  0.1778576E-03  0.2067089E-03  0.2822696E-03
  0.7552083E+00  0.1762565E-03  0.1747547E-03  0.1746029E-03  0.1742352E-03  0.1732334E-03  0.1725368E-03  0.1712343E-03  0.1687859E-03  0.1667376E-03  0.1645820E-03  0.1605210E-03  0.1505271E-03  0.1456023E-03  0.1869024E-03  0.2902032E-03
  0.7604167E+00  0.1172239E-03  0.1161314E-03  0.1159663E-03  0.1155712E-03  0.1145275E-03  0.1137933E-03  0.1125040E-03  0.1100815E-03  0.1083933E-03  0.1068138E-03  0.1042324E-03  0.9880258E-04  0.1018060E-03  0.1578916E-03  0.2911779E-03
  0.7656250E+00  0.4957861E-04  0.4917896E-04  0.4897865E-04  0.4852565E-04  0.4739636E-04  0.4654515E-04  0.4510549E-04  0.4253512E-04  0.4084526E-04  0.3970715E-04  0.3867404E-04  0.3563305E-04  0.4647520E-04  0.1199384E-03  0.2851666E-03
  0.7708333E+00 -0.2463791E-04 -0.2415523E-04 -0.2440629E-04 -0.2494635E-04 -0.2620421E-04 -0.2721382E-04 -0.2883579E-04 -0.3157016E-04 -0.3341544E-04 -0.3445527E-04 -0.3478746E-04 -0.3505091E-04 -0.1755791E-04  0.7262015E-04  0.2710449E-03
  0.7760417E+00 -0.9850802E-04 -0.9690050E-04 -0.9720267E-04 -0.9783335E-04 -0.9923335E-04 -0.1004464E-03 -0.1023669E-03 -0.1054260E-03 -0.1076916E-03 -0.1088524E-03 -0.1087043E-03 -0.1065965E-03 -0.8218444E-04  0.2405129E-04  0.2556404E-03
  0.7812500E+00 -0.1628791E-03 -0.1601591E-03 -0.1605275E-03 -0.1612719E-03 -0.1628430E-03 -0.1643085E-03 -0.1665518E-03 -0.1700459E-03 -0.1725852E-03 -0.1738721E-03 -0.1730350E-03 -0.1689400E-03 -0.1392554E-03 -0.1952067E-04  0.2427129E-03
  0.7864583E+00 -0.2124671E-03 -0.2090079E-03 -0.2094280E-03 -0.2102580E-03 -0.2119470E-03 -0.2135639E-03 -0.2160298E-03 -0.2197009E-03 -0.2225224E-03 -0.2239575E-03 -0.2226564E-03 -0.2165682E-03 -0.1824341E-03 -0.5262832E-04  0.2316713E-03
  0.7916667E+00 -0.2457419E-03 -0.2418913E-03 -0.2423906E-03 -0.2433533E-03 -0.2452322E-03 -0.2471049E-03 -0.2499111E-03 -0.2541491E-03 -0.2575882E-03 -0.2592852E-03 -0.2579678E-03 -0.2502410E-03 -0.2129047E-03 -0.7580706E-04  0.2201652E-03
  0.7968750E+00 -0.2659752E-03 -0.2621340E-03 -0.2627048E-03 -0.2637947E-03 -0.2658602E-03 -0.2680298E-03 -0.2712640E-03 -0.2760642E-03 -0.2804584E-03 -0.2833166E-03 -0.2827177E-03 -0.2746625E-03 -0.2357783E-03 -0.9639105E-04  0.2025144E-03
  0.8020833E+00 -0.2830410E-03 -0.2793193E-03 -0.2799878E-03 -0.2812422E-03 -0.2835683E-03 -0.2861357E-03 -0.2899749E-03 -0.2955689E-03 -0.3008969E-03 -0.3052752E-03 -0.3063479E-03 -0.2983256E-03 -0.2594640E-03 -0.1214954E-03  0.1745078E-03
  0.8072917E+00 -0.3037251E-03 -0.2999967E-03 -0.3007833E-03 -0.3022442E-03 -0.3048926E-03 -0.3079899E-03 -0.3126332E-03 -0.3194908E-03 -0.3267503E-03 -0.3337771E-03 -0.3370746E-03 -0.3304215E-03 -0.2911185E-03 -0.1530201E-03  0.1393240E-03
  0.8125000E+00 -0.3330828E-03 -0.3290320E-03 -0.3299228E-03 -0.3315625E-03 -0.3344921E-03 -0.3380145E-03 -0.3433455E-03 -0.3511668E-03 -0.3600362E-03 -0.3695597E-03 -0.3755964E-03 -0.3698930E-03 -0.3292883E-03 -0.1876373E-03  0.1025081E-03
  0.8177083E+00 -0.3714115E-03 -0.3666365E-03 -0.3676290E-03 -0.3694373E-03 -0.3726315E-03 -0.3765872E-03 -0.3826158E-03 -0.3915095E-03 -0.4017562E-03 -0.4130121E-03 -0.4206768E-03 -0.4151478E-03 -0.3720749E-03 -0.2246991E-03  0.6595788E-04
  0.8229167E+00 -0.4189201E-03 -0.4130580E-03 -0.4141357E-03 -0.4160950E-03 -0.4195355E-03 -0.4238669E-03 -0.4304401E-03 -0.4401826E-03 -0.4517142E-03 -0.4643454E-03 -0.4726807E-03 -0.4650570E-03 -0.4172413E-03 -0.2637805E-03  0.2988138E-04
  0.8281250E+00 -0.4723821E-03 -0.4651843E-03 -0.4663446E-03 -0.4684413E-03 -0.4720999E-03 -0.4767932E-03 -0.4839725E-03 -0.4944858E-03 -0.5069149E-03 -0.5203109E-03 -0.5284956E-03 -0.5186769E-03 -0.4654663E-03 -0.3058778E-03 -0.9813614E-05
  0.8333333E+00 -0.5292643E-03 -0.5202460E-03 -0.5214797E-03 -0.5237074E-03 -0.5276030E-03 -0.5326683E-03 -0.5403529E-03 -0.5515448E-03 -0.5648106E-03 -0.5787285E-03 -0.5865133E-03 -0.5737539E-03 -0.5153441E-03 -0.3515808E-03 -0.5194445E-04
  0.8385417E+00 -0.5882934E-03 -0.5771989E-03 -0.5784907E-03 -0.5808161E-03 -0.5848795E-03 -0.5902183E-03 -0.5983114E-03 -0.6100892E-03 -0.6239726E-03 -0.6384791E-03 -0.6457755E-03 -0.6297312E-03 -0.5658310E-03 -0.3978802E-03 -0.9492299E-04
  0.8437500E+00 -0.6508045E-03 -0.6374088E-03 -0.6387552E-03 -0.6411669E-03 -0.6453782E-03 -0.6509466E-03 -0.6593343E-03 -0.6713572E-03 -0.6855154E-03 -0.6998843E-03 -0.7055121E-03 -0.6859550E-03 -0.6171649E-03 -0.4459915E-03 -0.1393635E-03
  0.8489583E+00 -0.7171972E-03 -0.7013336E-03 -0.7027127E-03 -0.7051841E-03 -0.7095283E-03 -0.7153170E-03 -0.7239992E-03 -0.7364042E-03 -0.7505821E-03 -0.7644330E-03 -0.7684554E-03 -0.7450259E-03 -0.6727202E-03 -0.4998920E-03 -0.1881932E-03
  0.8541667E+00 -0.7855688E-03 -0.7671424E-03 -0.7685415E-03 -0.7710481E-03 -0.7754674E-03 -0.7813582E-03 -0.7901737E-03 -0.8026856E-03 -0.8171112E-03 -0.8310024E-03 -0.8339540E-03 -0.8076716E-03 -0.7332646E-03 -0.5596964E-03 -0.2408479E-03
  0.8593750E+00 -0.8555661E-03 -0.8343775E-03 -0.8357863E-03 -0.8383128E-03 -0.8428040E-03 -0.8488527E-03 -0.8578248E-03 -0.8703813E-03 -0.8848288E-03 -0.8983243E-03 -0.9004198E-03 -0.8722963E-03 -0.7967339E-03 -0.6231377E-03 -0.2956623E-03
  0.8645833E+00 -0.9277680E-03 -0.9037702E-03 -0.9051667E-03 -0.9076791E-03 -0.9121760E-03 -0.9182342E-03 -0.9271923E-03 -0.9396928E-03 -0.9540569E-03 -0.9672624E-03 -0.9686091E-03 -0.9393830E-03 -0.8639878E-03 -0.6913269E-03 -0.3515828E-03
  0.8697917E+00 -0.1004536E-02 -0.9775104E-03 -0.9789123E-03 -0.9814368E-03 -0.9859873E-03 -0.9921429E-03 -0.1001238E-02 -0.1013807E-02 -0.1028254E-02 -0.1041470E-02 -0.1042656E-02 -0.1013249E-02 -0.9378425E-03 -0.7652900E-03 -0.4106981E-03
  0.8750000E+00 -0.1086097E-02 -0.1055853E-02 -0.1057253E-02 -0.1059779E-02 -0.1064380E-02 -0.1070657E-02 -0.1079910E-02 -0.1092617E-02 -0.1107414E-02 -0.1121146E-02 -0.1123106E-02 -0.1094721E-02 -0.1021031E-02 -0.8477097E-03 -0.4736175E-03
  0.8802083E+00 -0.1173154E-02 -0.1139517E-02 -0.1140931E-02 -0.1143489E-02 -0.1148195E-02 -0.1154654E-02 -0.1164145E-02 -0.1177228E-02 -0.1192555E-02 -0.1207415E-02 -0.1211117E-02 -0.1185342E-02 -0.1113160E-02 -0.9361272E-03 -0.5390106E-03
  0.8854167E+00 -0.1266809E-02 -0.1229621E-02 -0.1231053E-02 -0.1233643E-02 -0.1238461E-02 -0.1245130E-02 -0.1254913E-02 -0.1268407E-02 -0.1284363E-02 -0.1300720E-02 -0.1306733E-02 -0.1283957E-02 -0.1212311E-02 -0.1029515E-02 -0.6091810E-03